<?xml version="1.0" encoding="UTF-8"?>

<!-- generated on 2026-04-10T11:49:10.735880+05:30 by Eclipse SUMO sumo 1.26.0
<sumoConfiguration xmlns:xsi="http://www.w3.org/2001/XMLSchema-instance" xsi:noNamespaceSchemaLocation="http://sumo.dlr.de/xsd/sumoConfiguration.xsd">

    <input>
        <net-file value="C:\Users\harsh\Desktop\SAFEGAT\1\network\4x4.net.xml"/>
        <route-files value="C:\Users\harsh\Desktop\SAFEGAT\1\network\4x4.rou.xml"/>
    </input>

    <output>
        <tripinfo-output value="C:\Users\harsh\Desktop\SAFEGAT\1\data\output\gat_dqn.tripinfo.xml"/>
    </output>

    <time>
        <end value="3600"/>
        <step-length value="1.0"/>
    </time>

    <processing>
        <time-to-teleport value="-1"/>
    </processing>

    <report>
        <no-warnings value="true"/>
        <no-step-log value="true"/>
    </report>

    <traci_server>
        <remote-port value="8816"/>
    </traci_server>

</sumoConfiguration>
-->

<tripinfos xmlns:xsi="http://www.w3.org/2001/XMLSchema-instance" xsi:noNamespaceSchemaLocation="http://sumo.dlr.de/xsd/tripinfo_file.xsd">
</tripinfos>
