<?xml version="1.0" encoding="UTF-8"?>

<!-- generated on 2026-04-08T22:01:31.257501+05:30 by Eclipse SUMO sumo 1.26.0
<sumoConfiguration xmlns:xsi="http://www.w3.org/2001/XMLSchema-instance" xsi:noNamespaceSchemaLocation="http://sumo.dlr.de/xsd/sumoConfiguration.xsd">

    <input>
        <net-file value="C:\Users\harsh\Desktop\RL\SafeGAT_iLLM\network\4x4.net.xml"/>
        <route-files value="C:\Users\harsh\Desktop\RL\SafeGAT_iLLM\network\4x4.rou.xml"/>
    </input>

    <output>
        <tripinfo-output value="C:\Users\harsh\Desktop\RL\SafeGAT_iLLM\data\output\safegat.tripinfo.xml"/>
    </output>

    <processing>
        <time-to-teleport value="-1"/>
    </processing>

    <report>
        <no-warnings value="true"/>
        <no-step-log value="true"/>
    </report>

    <traci_server>
        <remote-port value="56791"/>
    </traci_server>

</sumoConfiguration>
-->

<tripinfos xmlns:xsi="http://www.w3.org/2001/XMLSchema-instance" xsi:noNamespaceSchemaLocation="http://sumo.dlr.de/xsd/tripinfo_file.xsd">
    <tripinfo id="f_9.0" depart="9.00" departLane="E26_0" departPos="5.10" departSpeed="0.00" departDelay="9.00" arrival="22.00" arrivalLane="E3_0" arrivalPos="37.48" arrivalSpeed="13.92" duration="13.00" routeLength="91.76" waitingTime="0.00" waitingCount="0" stopTime="0.00" timeLoss="4.63" rerouteNo="0" devices="tripinfo_f_9.0 routing_f_9.0" vType="DEFAULT_VEHTYPE" speedFactor="1.03" vaporized=""/>
    <tripinfo id="f_9.1" depart="21.00" departLane="E26_0" departPos="5.10" departSpeed="0.00" departDelay="19.00" arrival="34.00" arrivalLane="E3_0" arrivalPos="37.48" arrivalSpeed="11.94" duration="13.00" routeLength="91.76" waitingTime="0.00" waitingCount="0" stopTime="0.00" timeLoss="4.16" rerouteNo="0" devices="tripinfo_f_9.1 routing_f_9.1" vType="DEFAULT_VEHTYPE" speedFactor="0.89" vaporized=""/>
    <tripinfo id="f_9.2" depart="33.00" departLane="E26_0" departPos="5.10" departSpeed="0.00" departDelay="29.00" arrival="46.00" arrivalLane="E3_0" arrivalPos="37.48" arrivalSpeed="13.70" duration="13.00" routeLength="91.76" waitingTime="0.00" waitingCount="0" stopTime="0.00" timeLoss="5.32" rerouteNo="0" devices="tripinfo_f_9.2 routing_f_9.2" vType="DEFAULT_VEHTYPE" speedFactor="1.02" vaporized=""/>
    <tripinfo id="f_11.0" depart="3.00" departLane="E26_0" departPos="5.10" departSpeed="0.00" departDelay="3.00" arrival="60.00" arrivalLane="E20_0" arrivalPos="44.72" arrivalSpeed="13.86" duration="57.00" routeLength="367.99" waitingTime="18.00" waitingCount="1" stopTime="0.00" timeLoss="31.12" rerouteNo="0" devices="tripinfo_f_11.0 routing_f_11.0" vType="DEFAULT_VEHTYPE" speedFactor="1.08" vaporized=""/>
    <tripinfo id="f_8.0" depart="6.00" departLane="E26_0" departPos="5.10" departSpeed="0.00" departDelay="6.00" arrival="61.00" arrivalLane="E30_0" arrivalPos="52.31" arrivalSpeed="13.94" duration="55.00" routeLength="290.71" waitingTime="25.00" waitingCount="1" stopTime="0.00" timeLoss="35.20" rerouteNo="0" devices="tripinfo_f_8.0 routing_f_8.0" vType="DEFAULT_VEHTYPE" speedFactor="1.09" vaporized=""/>
    <tripinfo id="f_11.1" depart="15.00" departLane="E26_0" departPos="5.10" departSpeed="0.00" departDelay="13.00" arrival="63.00" arrivalLane="E20_0" arrivalPos="44.72" arrivalSpeed="12.76" duration="48.00" routeLength="367.99" waitingTime="4.00" waitingCount="1" stopTime="0.00" timeLoss="18.09" rerouteNo="0" devices="tripinfo_f_11.1 routing_f_11.1" vType="DEFAULT_VEHTYPE" speedFactor="0.93" vaporized=""/>
    <tripinfo id="f_7.0" depart="9.00" departLane="E21_0" departPos="5.10" departSpeed="0.00" departDelay="9.00" arrival="64.00" arrivalLane="E3_0" arrivalPos="37.48" arrivalSpeed="11.08" duration="55.00" routeLength="149.19" waitingTime="31.00" waitingCount="1" stopTime="0.00" timeLoss="41.77" rerouteNo="0" devices="tripinfo_f_7.0 routing_f_7.0" vType="DEFAULT_VEHTYPE" speedFactor="0.86" vaporized=""/>
    <tripinfo id="f_8.1" depart="18.00" departLane="E26_0" departPos="5.10" departSpeed="0.00" departDelay="16.00" arrival="64.00" arrivalLane="E30_0" arrivalPos="52.31" arrivalSpeed="12.38" duration="46.00" routeLength="290.71" waitingTime="15.00" waitingCount="1" stopTime="0.00" timeLoss="23.79" rerouteNo="0" devices="tripinfo_f_8.1 routing_f_8.1" vType="DEFAULT_VEHTYPE" speedFactor="0.97" vaporized=""/>
    <tripinfo id="f_0.0" depart="0.00" departLane="E16_0" departPos="5.10" departSpeed="0.00" departDelay="0.00" arrival="65.00" arrivalLane="E20_0" arrivalPos="44.72" arrivalSpeed="14.71" duration="65.00" routeLength="280.49" waitingTime="36.00" waitingCount="1" stopTime="0.00" timeLoss="45.40" rerouteNo="0" devices="tripinfo_f_0.0 routing_f_0.0" vType="DEFAULT_VEHTYPE" speedFactor="1.06" vaporized=""/>
    <tripinfo id="f_8.2" depart="30.00" departLane="E26_0" departPos="5.10" departSpeed="0.00" departDelay="26.00" arrival="66.00" arrivalLane="E30_0" arrivalPos="52.31" arrivalSpeed="12.81" duration="36.00" routeLength="290.71" waitingTime="4.00" waitingCount="1" stopTime="0.00" timeLoss="14.08" rerouteNo="0" devices="tripinfo_f_8.2 routing_f_8.2" vType="DEFAULT_VEHTYPE" speedFactor="0.99" vaporized=""/>
    <tripinfo id="f_7.1" depart="52.00" departLane="E21_0" departPos="5.10" departSpeed="0.00" departDelay="50.00" arrival="73.00" arrivalLane="E3_0" arrivalPos="37.48" arrivalSpeed="13.03" duration="21.00" routeLength="149.19" waitingTime="1.00" waitingCount="1" stopTime="0.00" timeLoss="9.06" rerouteNo="0" devices="tripinfo_f_7.1 routing_f_7.1" vType="DEFAULT_VEHTYPE" speedFactor="1.01" vaporized=""/>
    <tripinfo id="f_0.1" depart="12.00" departLane="E16_0" departPos="5.10" departSpeed="0.00" departDelay="10.00" arrival="74.00" arrivalLane="E20_0" arrivalPos="44.72" arrivalSpeed="13.80" duration="62.00" routeLength="280.49" waitingTime="29.00" waitingCount="1" stopTime="0.00" timeLoss="42.55" rerouteNo="0" devices="tripinfo_f_0.1 routing_f_0.1" vType="DEFAULT_VEHTYPE" speedFactor="1.05" vaporized=""/>
    <tripinfo id="f_6.0" depart="6.00" departLane="E21_0" departPos="5.10" departSpeed="0.00" departDelay="6.00" arrival="78.00" arrivalLane="E30_0" arrivalPos="52.31" arrivalSpeed="12.15" duration="72.00" routeLength="342.13" waitingTime="32.00" waitingCount="1" stopTime="0.00" timeLoss="44.05" rerouteNo="0" devices="tripinfo_f_6.0 routing_f_6.0" vType="DEFAULT_VEHTYPE" speedFactor="0.94" vaporized=""/>
    <tripinfo id="f_7.2" depart="65.00" departLane="E21_0" departPos="5.10" departSpeed="0.00" departDelay="61.00" arrival="84.00" arrivalLane="E3_0" arrivalPos="37.48" arrivalSpeed="16.15" duration="19.00" routeLength="149.19" waitingTime="0.00" waitingCount="0" stopTime="0.00" timeLoss="8.49" rerouteNo="0" devices="tripinfo_f_7.2 routing_f_7.2" vType="DEFAULT_VEHTYPE" speedFactor="1.17" vaporized=""/>
    <tripinfo id="f_6.1" depart="18.00" departLane="E21_0" departPos="5.10" departSpeed="0.00" departDelay="16.00" arrival="86.00" arrivalLane="E30_0" arrivalPos="52.31" arrivalSpeed="13.99" duration="68.00" routeLength="342.13" waitingTime="26.00" waitingCount="1" stopTime="0.00" timeLoss="42.18" rerouteNo="0" devices="tripinfo_f_6.1 routing_f_6.1" vType="DEFAULT_VEHTYPE" speedFactor="1.02" vaporized=""/>
    <tripinfo id="f_10.0" depart="0.00" departLane="E26_0" departPos="5.10" departSpeed="0.00" departDelay="0.00" arrival="97.00" arrivalLane="E25_0" arrivalPos="48.37" arrivalSpeed="13.13" duration="97.00" routeLength="324.08" waitingTime="55.00" waitingCount="2" stopTime="0.00" timeLoss="72.35" rerouteNo="0" devices="tripinfo_f_10.0 routing_f_10.0" vType="DEFAULT_VEHTYPE" speedFactor="1.01" vaporized=""/>
    <tripinfo id="f_6.2" depart="62.00" departLane="E21_0" departPos="5.10" departSpeed="0.00" departDelay="58.00" arrival="97.00" arrivalLane="E30_0" arrivalPos="52.31" arrivalSpeed="13.57" duration="35.00" routeLength="342.13" waitingTime="0.00" waitingCount="0" stopTime="0.00" timeLoss="8.19" rerouteNo="0" devices="tripinfo_f_6.2 routing_f_6.2" vType="DEFAULT_VEHTYPE" speedFactor="1.01" vaporized=""/>
    <tripinfo id="f_10.1" depart="12.00" departLane="E26_0" departPos="5.10" departSpeed="0.00" departDelay="10.00" arrival="99.00" arrivalLane="E25_0" arrivalPos="48.37" arrivalSpeed="12.48" duration="87.00" routeLength="324.08" waitingTime="44.00" waitingCount="2" stopTime="0.00" timeLoss="61.35" rerouteNo="0" devices="tripinfo_f_10.1 routing_f_10.1" vType="DEFAULT_VEHTYPE" speedFactor="0.99" vaporized=""/>
    <tripinfo id="f_10.2" depart="24.00" departLane="E26_0" departPos="5.10" departSpeed="0.00" departDelay="20.00" arrival="102.00" arrivalLane="E25_0" arrivalPos="48.37" arrivalSpeed="12.53" duration="78.00" routeLength="324.08" waitingTime="32.00" waitingCount="2" stopTime="0.00" timeLoss="50.71" rerouteNo="0" devices="tripinfo_f_10.2 routing_f_10.2" vType="DEFAULT_VEHTYPE" speedFactor="0.92" vaporized=""/>
    <tripinfo id="f_5.0" depart="3.00" departLane="E21_0" departPos="5.10" departSpeed="0.00" departDelay="3.00" arrival="104.00" arrivalLane="E25_0" arrivalPos="48.37" arrivalSpeed="11.24" duration="101.00" routeLength="286.68" waitingTime="60.00" waitingCount="2" stopTime="0.00" timeLoss="77.25" rerouteNo="0" devices="tripinfo_f_5.0 routing_f_5.0" vType="DEFAULT_VEHTYPE" speedFactor="0.89" vaporized=""/>
    <tripinfo id="f_9.3" depart="45.00" departLane="E26_0" departPos="5.10" departSpeed="0.00" departDelay="39.00" arrival="104.00" arrivalLane="E3_0" arrivalPos="37.48" arrivalSpeed="11.46" duration="59.00" routeLength="91.76" waitingTime="40.00" waitingCount="1" stopTime="0.00" timeLoss="50.27" rerouteNo="0" devices="tripinfo_f_9.3 routing_f_9.3" vType="DEFAULT_VEHTYPE" speedFactor="0.90" vaporized=""/>
    <tripinfo id="f_5.1" depart="15.00" departLane="E21_0" departPos="5.10" departSpeed="0.00" departDelay="13.00" arrival="106.00" arrivalLane="E25_0" arrivalPos="48.37" arrivalSpeed="13.57" duration="91.00" routeLength="286.68" waitingTime="52.00" waitingCount="2" stopTime="0.00" timeLoss="72.49" rerouteNo="0" devices="tripinfo_f_5.1 routing_f_5.1" vType="DEFAULT_VEHTYPE" speedFactor="1.16" vaporized=""/>
    <tripinfo id="f_5.2" depart="59.00" departLane="E21_0" departPos="5.10" departSpeed="0.00" departDelay="55.00" arrival="107.00" arrivalLane="E25_0" arrivalPos="48.37" arrivalSpeed="13.73" duration="48.00" routeLength="286.68" waitingTime="14.00" waitingCount="1" stopTime="0.00" timeLoss="30.02" rerouteNo="0" devices="tripinfo_f_5.2 routing_f_5.2" vType="DEFAULT_VEHTYPE" speedFactor="1.15" vaporized=""/>
    <tripinfo id="f_9.4" depart="99.00" departLane="E26_0" departPos="5.10" departSpeed="0.00" departDelay="91.00" arrival="114.00" arrivalLane="E3_0" arrivalPos="37.48" arrivalSpeed="12.21" duration="15.00" routeLength="91.76" waitingTime="0.00" waitingCount="0" stopTime="0.00" timeLoss="6.49" rerouteNo="0" devices="tripinfo_f_9.4 routing_f_9.4" vType="DEFAULT_VEHTYPE" speedFactor="0.97" vaporized=""/>
    <tripinfo id="f_9.5" depart="112.00" departLane="E26_0" departPos="5.10" departSpeed="0.00" departDelay="102.00" arrival="125.00" arrivalLane="E3_0" arrivalPos="37.48" arrivalSpeed="12.87" duration="13.00" routeLength="91.76" waitingTime="0.00" waitingCount="0" stopTime="0.00" timeLoss="4.43" rerouteNo="0" devices="tripinfo_f_9.5 routing_f_9.5" vType="DEFAULT_VEHTYPE" speedFactor="0.97" vaporized=""/>
    <tripinfo id="f_9.6" depart="124.00" departLane="E26_0" departPos="5.10" departSpeed="0.00" departDelay="112.00" arrival="136.00" arrivalLane="E3_0" arrivalPos="37.48" arrivalSpeed="12.22" duration="12.00" routeLength="91.76" waitingTime="0.00" waitingCount="0" stopTime="0.00" timeLoss="4.45" rerouteNo="0" devices="tripinfo_f_9.6 routing_f_9.6" vType="DEFAULT_VEHTYPE" speedFactor="0.97" vaporized=""/>
    <tripinfo id="f_7.3" depart="77.00" departLane="E21_0" departPos="5.10" departSpeed="0.00" departDelay="71.00" arrival="142.00" arrivalLane="E3_0" arrivalPos="37.48" arrivalSpeed="14.99" duration="65.00" routeLength="149.19" waitingTime="41.00" waitingCount="1" stopTime="0.00" timeLoss="53.72" rerouteNo="0" devices="tripinfo_f_7.3 routing_f_7.3" vType="DEFAULT_VEHTYPE" speedFactor="1.09" vaporized=""/>
    <tripinfo id="f_3.0" depart="9.00" departLane="E16_0" departPos="5.10" departSpeed="0.00" departDelay="9.00" arrival="148.00" arrivalLane="E3_0" arrivalPos="37.48" arrivalSpeed="11.24" duration="139.00" routeLength="202.05" waitingTime="95.00" waitingCount="3" stopTime="0.00" timeLoss="120.32" rerouteNo="0" devices="tripinfo_f_3.0 routing_f_3.0" vType="DEFAULT_VEHTYPE" speedFactor="0.83" vaporized=""/>
    <tripinfo id="f_11.2" depart="27.00" departLane="E26_0" departPos="5.10" departSpeed="0.00" departDelay="23.00" arrival="151.00" arrivalLane="E20_0" arrivalPos="44.72" arrivalSpeed="12.30" duration="124.00" routeLength="367.99" waitingTime="76.00" waitingCount="2" stopTime="0.00" timeLoss="94.45" rerouteNo="0" devices="tripinfo_f_11.2 routing_f_11.2" vType="DEFAULT_VEHTYPE" speedFactor="0.95" vaporized=""/>
    <tripinfo id="f_6.3" depart="74.00" departLane="E21_0" departPos="5.10" departSpeed="0.00" departDelay="68.00" arrival="151.00" arrivalLane="E30_0" arrivalPos="52.31" arrivalSpeed="14.29" duration="77.00" routeLength="342.13" waitingTime="38.00" waitingCount="1" stopTime="0.00" timeLoss="51.75" rerouteNo="0" devices="tripinfo_f_6.3 routing_f_6.3" vType="DEFAULT_VEHTYPE" speedFactor="1.04" vaporized=""/>
    <tripinfo id="f_4.0" depart="0.00" departLane="E21_0" departPos="5.10" departSpeed="0.00" departDelay="0.00" arrival="153.00" arrivalLane="E20_0" arrivalPos="44.72" arrivalSpeed="14.35" duration="153.00" routeLength="325.34" waitingTime="104.00" waitingCount="3" stopTime="0.00" timeLoss="128.68" rerouteNo="0" devices="tripinfo_f_4.0 routing_f_4.0" vType="DEFAULT_VEHTYPE" speedFactor="1.05" vaporized=""/>
    <tripinfo id="f_8.3" depart="42.00" departLane="E26_0" departPos="5.10" departSpeed="0.00" departDelay="36.00" arrival="153.00" arrivalLane="E30_0" arrivalPos="52.31" arrivalSpeed="13.27" duration="111.00" routeLength="290.71" waitingTime="76.00" waitingCount="2" stopTime="0.00" timeLoss="90.02" rerouteNo="0" devices="tripinfo_f_8.3 routing_f_8.3" vType="DEFAULT_VEHTYPE" speedFactor="1.00" vaporized=""/>
    <tripinfo id="f_4.1" depart="12.00" departLane="E21_0" departPos="5.10" departSpeed="0.00" departDelay="10.00" arrival="155.00" arrivalLane="E20_0" arrivalPos="44.72" arrivalSpeed="12.11" duration="143.00" routeLength="325.34" waitingTime="92.00" waitingCount="3" stopTime="0.00" timeLoss="115.82" rerouteNo="0" devices="tripinfo_f_4.1 routing_f_4.1" vType="DEFAULT_VEHTYPE" speedFactor="0.94" vaporized=""/>
    <tripinfo id="f_8.4" depart="96.00" departLane="E26_0" departPos="5.10" departSpeed="0.00" departDelay="88.00" arrival="156.00" arrivalLane="E30_0" arrivalPos="52.31" arrivalSpeed="14.17" duration="60.00" routeLength="290.71" waitingTime="25.00" waitingCount="1" stopTime="0.00" timeLoss="38.59" rerouteNo="0" devices="tripinfo_f_8.4 routing_f_8.4" vType="DEFAULT_VEHTYPE" speedFactor="1.02" vaporized=""/>
    <tripinfo id="f_4.2" depart="56.00" departLane="E21_0" departPos="5.10" departSpeed="0.00" departDelay="52.00" arrival="157.00" arrivalLane="E20_0" arrivalPos="44.72" arrivalSpeed="15.62" duration="101.00" routeLength="325.34" waitingTime="53.00" waitingCount="2" stopTime="0.00" timeLoss="79.29" rerouteNo="0" devices="tripinfo_f_4.2 routing_f_4.2" vType="DEFAULT_VEHTYPE" speedFactor="1.18" vaporized=""/>
    <tripinfo id="f_7.4" depart="90.00" departLane="E21_0" departPos="5.10" departSpeed="0.00" departDelay="82.00" arrival="157.00" arrivalLane="E3_0" arrivalPos="37.48" arrivalSpeed="15.09" duration="67.00" routeLength="149.19" waitingTime="39.00" waitingCount="1" stopTime="0.00" timeLoss="56.17" rerouteNo="0" devices="tripinfo_f_7.4 routing_f_7.4" vType="DEFAULT_VEHTYPE" speedFactor="1.14" vaporized=""/>
    <tripinfo id="f_8.5" depart="108.00" departLane="E26_0" departPos="5.10" departSpeed="0.00" departDelay="98.00" arrival="157.00" arrivalLane="E30_0" arrivalPos="52.31" arrivalSpeed="13.87" duration="49.00" routeLength="290.71" waitingTime="14.00" waitingCount="1" stopTime="0.00" timeLoss="28.36" rerouteNo="0" devices="tripinfo_f_8.5 routing_f_8.5" vType="DEFAULT_VEHTYPE" speedFactor="1.02" vaporized=""/>
    <tripinfo id="f_4.3" depart="68.00" departLane="E21_0" departPos="5.10" departSpeed="0.00" departDelay="62.00" arrival="159.00" arrivalLane="E20_0" arrivalPos="44.72" arrivalSpeed="15.11" duration="91.00" routeLength="325.34" waitingTime="45.00" waitingCount="2" stopTime="0.00" timeLoss="67.44" rerouteNo="0" devices="tripinfo_f_4.3 routing_f_4.3" vType="DEFAULT_VEHTYPE" speedFactor="1.09" vaporized=""/>
    <tripinfo id="f_8.6" depart="121.00" departLane="E26_0" departPos="5.10" departSpeed="0.00" departDelay="109.00" arrival="159.00" arrivalLane="E30_0" arrivalPos="52.31" arrivalSpeed="13.99" duration="38.00" routeLength="290.71" waitingTime="5.00" waitingCount="1" stopTime="0.00" timeLoss="17.00" rerouteNo="0" devices="tripinfo_f_8.6 routing_f_8.6" vType="DEFAULT_VEHTYPE" speedFactor="1.02" vaporized=""/>
    <tripinfo id="f_2.0" depart="6.00" departLane="E16_0" departPos="5.10" departSpeed="0.00" departDelay="6.00" arrival="161.00" arrivalLane="E30_0" arrivalPos="52.31" arrivalSpeed="13.81" duration="155.00" routeLength="394.99" waitingTime="100.00" waitingCount="3" stopTime="0.00" timeLoss="125.24" rerouteNo="0" devices="tripinfo_f_2.0 routing_f_2.0" vType="DEFAULT_VEHTYPE" speedFactor="1.03" vaporized=""/>
    <tripinfo id="f_0.2" depart="56.00" departLane="E16_0" departPos="5.10" departSpeed="0.00" departDelay="52.00" arrival="163.00" arrivalLane="E20_0" arrivalPos="44.72" arrivalSpeed="10.57" duration="107.00" routeLength="280.49" waitingTime="68.00" waitingCount="1" stopTime="0.00" timeLoss="82.54" rerouteNo="0" devices="tripinfo_f_0.2 routing_f_0.2" vType="DEFAULT_VEHTYPE" speedFactor="0.83" vaporized=""/>
    <tripinfo id="f_7.5" depart="142.00" departLane="E21_0" departPos="5.10" departSpeed="0.00" departDelay="132.00" arrival="166.00" arrivalLane="E3_0" arrivalPos="37.48" arrivalSpeed="13.08" duration="24.00" routeLength="149.19" waitingTime="1.00" waitingCount="1" stopTime="0.00" timeLoss="12.09" rerouteNo="0" devices="tripinfo_f_7.5 routing_f_7.5" vType="DEFAULT_VEHTYPE" speedFactor="1.02" vaporized=""/>
    <tripinfo id="f_2.1" depart="18.00" departLane="E16_0" departPos="5.10" departSpeed="0.00" departDelay="16.00" arrival="168.00" arrivalLane="E30_0" arrivalPos="52.31" arrivalSpeed="11.98" duration="150.00" routeLength="394.99" waitingTime="81.00" waitingCount="3" stopTime="0.00" timeLoss="115.84" rerouteNo="0" devices="tripinfo_f_2.1 routing_f_2.1" vType="DEFAULT_VEHTYPE" speedFactor="0.88" vaporized=""/>
    <tripinfo id="f_0.3" depart="68.00" departLane="E16_0" departPos="5.10" departSpeed="0.00" departDelay="62.00" arrival="169.00" arrivalLane="E20_0" arrivalPos="44.72" arrivalSpeed="13.00" duration="101.00" routeLength="280.49" waitingTime="65.00" waitingCount="1" stopTime="0.00" timeLoss="79.94" rerouteNo="0" devices="tripinfo_f_0.3 routing_f_0.3" vType="DEFAULT_VEHTYPE" speedFactor="0.97" vaporized=""/>
    <tripinfo id="f_6.4" depart="87.00" departLane="E21_0" departPos="5.10" departSpeed="0.00" departDelay="79.00" arrival="172.00" arrivalLane="E30_0" arrivalPos="52.31" arrivalSpeed="12.48" duration="85.00" routeLength="342.13" waitingTime="40.00" waitingCount="1" stopTime="0.00" timeLoss="55.74" rerouteNo="0" devices="tripinfo_f_6.4 routing_f_6.4" vType="DEFAULT_VEHTYPE" speedFactor="0.90" vaporized=""/>
    <tripinfo id="f_6.5" depart="99.00" departLane="E21_0" departPos="5.10" departSpeed="0.00" departDelay="89.00" arrival="179.00" arrivalLane="E30_0" arrivalPos="52.31" arrivalSpeed="13.21" duration="80.00" routeLength="342.13" waitingTime="35.00" waitingCount="1" stopTime="0.00" timeLoss="54.35" rerouteNo="0" devices="tripinfo_f_6.5 routing_f_6.5" vType="DEFAULT_VEHTYPE" speedFactor="1.04" vaporized=""/>
    <tripinfo id="f_5.3" depart="71.00" departLane="E21_0" departPos="5.10" departSpeed="0.00" departDelay="65.00" arrival="187.00" arrivalLane="E25_0" arrivalPos="48.37" arrivalSpeed="14.15" duration="116.00" routeLength="286.68" waitingTime="78.00" waitingCount="2" stopTime="0.00" timeLoss="95.97" rerouteNo="0" devices="tripinfo_f_5.3 routing_f_5.3" vType="DEFAULT_VEHTYPE" speedFactor="1.04" vaporized=""/>
    <tripinfo id="f_1.0" depart="3.00" departLane="E16_0" departPos="5.10" departSpeed="0.00" departDelay="3.00" arrival="189.00" arrivalLane="E25_0" arrivalPos="48.37" arrivalSpeed="12.13" duration="186.00" routeLength="333.26" waitingTime="132.00" waitingCount="4" stopTime="0.00" timeLoss="159.20" rerouteNo="0" devices="tripinfo_f_1.0 routing_f_1.0" vType="DEFAULT_VEHTYPE" speedFactor="0.94" vaporized=""/>
    <tripinfo id="f_10.3" depart="36.00" departLane="E26_0" departPos="5.10" departSpeed="0.00" departDelay="30.00" arrival="191.00" arrivalLane="E25_0" arrivalPos="48.37" arrivalSpeed="14.93" duration="155.00" routeLength="324.08" waitingTime="108.00" waitingCount="3" stopTime="0.00" timeLoss="132.66" rerouteNo="0" devices="tripinfo_f_10.3 routing_f_10.3" vType="DEFAULT_VEHTYPE" speedFactor="1.10" vaporized=""/>
    <tripinfo id="f_1.1" depart="15.00" departLane="E16_0" departPos="5.10" departSpeed="0.00" departDelay="13.00" arrival="193.00" arrivalLane="E25_0" arrivalPos="48.37" arrivalSpeed="14.53" duration="178.00" routeLength="333.26" waitingTime="114.00" waitingCount="4" stopTime="0.00" timeLoss="154.93" rerouteNo="0" devices="tripinfo_f_1.1 routing_f_1.1" vType="DEFAULT_VEHTYPE" speedFactor="1.12" vaporized=""/>
    <tripinfo id="f_9.7" depart="136.00" departLane="E26_0" departPos="5.10" departSpeed="0.00" departDelay="122.00" arrival="193.00" arrivalLane="E3_0" arrivalPos="37.48" arrivalSpeed="14.06" duration="57.00" routeLength="91.76" waitingTime="39.00" waitingCount="1" stopTime="0.00" timeLoss="49.52" rerouteNo="0" devices="tripinfo_f_9.7 routing_f_9.7" vType="DEFAULT_VEHTYPE" speedFactor="1.06" vaporized=""/>
    <tripinfo id="f_10.4" depart="48.00" departLane="E26_0" departPos="5.10" departSpeed="0.00" departDelay="40.00" arrival="196.00" arrivalLane="E25_0" arrivalPos="48.37" arrivalSpeed="10.61" duration="148.00" routeLength="324.08" waitingTime="90.00" waitingCount="3" stopTime="0.00" timeLoss="118.95" rerouteNo="0" devices="tripinfo_f_10.4 routing_f_10.4" vType="DEFAULT_VEHTYPE" speedFactor="0.85" vaporized=""/>
    <tripinfo id="f_10.5" depart="103.00" departLane="E26_0" departPos="5.10" departSpeed="0.00" departDelay="93.00" arrival="197.00" arrivalLane="E25_0" arrivalPos="48.37" arrivalSpeed="12.97" duration="94.00" routeLength="324.08" waitingTime="45.00" waitingCount="2" stopTime="0.00" timeLoss="70.09" rerouteNo="0" devices="tripinfo_f_10.5 routing_f_10.5" vType="DEFAULT_VEHTYPE" speedFactor="1.02" vaporized=""/>
    <tripinfo id="f_9.8" depart="190.00" departLane="E26_0" departPos="5.10" departSpeed="0.00" departDelay="174.00" arrival="203.00" arrivalLane="E3_0" arrivalPos="37.48" arrivalSpeed="13.69" duration="13.00" routeLength="91.76" waitingTime="0.00" waitingCount="0" stopTime="0.00" timeLoss="5.35" rerouteNo="0" devices="tripinfo_f_9.8 routing_f_9.8" vType="DEFAULT_VEHTYPE" speedFactor="1.03" vaporized=""/>
    <tripinfo id="f_9.9" depart="202.00" departLane="E26_0" departPos="5.10" departSpeed="0.00" departDelay="184.00" arrival="215.00" arrivalLane="E3_0" arrivalPos="37.48" arrivalSpeed="14.11" duration="13.00" routeLength="91.76" waitingTime="0.00" waitingCount="0" stopTime="0.00" timeLoss="5.58" rerouteNo="0" devices="tripinfo_f_9.9 routing_f_9.9" vType="DEFAULT_VEHTYPE" speedFactor="1.07" vaporized=""/>
    <tripinfo id="f_9.10" depart="214.00" departLane="E26_0" departPos="5.10" departSpeed="0.00" departDelay="194.00" arrival="227.00" arrivalLane="E3_0" arrivalPos="37.48" arrivalSpeed="13.70" duration="13.00" routeLength="91.76" waitingTime="0.00" waitingCount="0" stopTime="0.00" timeLoss="5.01" rerouteNo="0" devices="tripinfo_f_9.10 routing_f_9.10" vType="DEFAULT_VEHTYPE" speedFactor="1.07" vaporized=""/>
    <tripinfo id="f_3.1" depart="45.00" departLane="E16_0" departPos="5.10" departSpeed="0.00" departDelay="43.00" arrival="232.00" arrivalLane="E3_0" arrivalPos="37.48" arrivalSpeed="12.12" duration="187.00" routeLength="202.05" waitingTime="145.00" waitingCount="4" stopTime="0.00" timeLoss="170.41" rerouteNo="0" devices="tripinfo_f_3.1 routing_f_3.1" vType="DEFAULT_VEHTYPE" speedFactor="0.94" vaporized=""/>
    <tripinfo id="f_3.2" depart="65.00" departLane="E16_0" departPos="5.10" departSpeed="0.00" departDelay="61.00" arrival="236.00" arrivalLane="E3_0" arrivalPos="37.48" arrivalSpeed="12.71" duration="171.00" routeLength="202.05" waitingTime="122.00" waitingCount="4" stopTime="0.00" timeLoss="154.00" rerouteNo="0" devices="tripinfo_f_3.2 routing_f_3.2" vType="DEFAULT_VEHTYPE" speedFactor="0.93" vaporized=""/>
    <tripinfo id="f_8.7" depart="133.00" departLane="E26_0" departPos="5.10" departSpeed="0.00" departDelay="119.00" arrival="241.00" arrivalLane="E30_0" arrivalPos="52.31" arrivalSpeed="14.67" duration="108.00" routeLength="290.71" waitingTime="71.00" waitingCount="2" stopTime="0.00" timeLoss="88.05" rerouteNo="0" devices="tripinfo_f_8.7 routing_f_8.7" vType="DEFAULT_VEHTYPE" speedFactor="1.09" vaporized=""/>
    <tripinfo id="f_11.3" depart="39.00" departLane="E26_0" departPos="5.10" departSpeed="0.00" departDelay="33.00" arrival="242.00" arrivalLane="E20_0" arrivalPos="44.72" arrivalSpeed="12.31" duration="203.00" routeLength="367.99" waitingTime="153.00" waitingCount="3" stopTime="0.00" timeLoss="171.99" rerouteNo="0" devices="tripinfo_f_11.3 routing_f_11.3" vType="DEFAULT_VEHTYPE" speedFactor="0.90" vaporized=""/>
    <tripinfo id="f_11.4" depart="51.00" departLane="E26_0" departPos="5.10" departSpeed="0.00" departDelay="43.00" arrival="244.00" arrivalLane="E20_0" arrivalPos="44.72" arrivalSpeed="15.13" duration="193.00" routeLength="367.99" waitingTime="136.00" waitingCount="3" stopTime="0.00" timeLoss="168.14" rerouteNo="0" devices="tripinfo_f_11.4 routing_f_11.4" vType="DEFAULT_VEHTYPE" speedFactor="1.17" vaporized=""/>
    <tripinfo id="f_8.8" depart="186.00" departLane="E26_0" departPos="5.10" departSpeed="0.00" departDelay="170.00" arrival="244.00" arrivalLane="E30_0" arrivalPos="52.31" arrivalSpeed="13.72" duration="58.00" routeLength="290.71" waitingTime="23.00" waitingCount="1" stopTime="0.00" timeLoss="37.04" rerouteNo="0" devices="tripinfo_f_8.8 routing_f_8.8" vType="DEFAULT_VEHTYPE" speedFactor="1.01" vaporized=""/>
    <tripinfo id="f_11.5" depart="105.00" departLane="E26_0" departPos="5.10" departSpeed="0.00" departDelay="95.00" arrival="245.00" arrivalLane="E20_0" arrivalPos="44.72" arrivalSpeed="13.35" duration="140.00" routeLength="367.99" waitingTime="90.00" waitingCount="2" stopTime="0.00" timeLoss="111.90" rerouteNo="0" devices="tripinfo_f_11.5 routing_f_11.5" vType="DEFAULT_VEHTYPE" speedFactor="0.99" vaporized=""/>
    <tripinfo id="f_7.6" depart="157.00" departLane="E21_0" departPos="5.10" departSpeed="0.00" departDelay="145.00" arrival="246.00" arrivalLane="E3_0" arrivalPos="37.48" arrivalSpeed="12.66" duration="89.00" routeLength="149.19" waitingTime="62.00" waitingCount="1" stopTime="0.00" timeLoss="77.19" rerouteNo="0" devices="tripinfo_f_7.6 routing_f_7.6" vType="DEFAULT_VEHTYPE" speedFactor="1.00" vaporized=""/>
    <tripinfo id="f_8.9" depart="199.00" departLane="E26_0" departPos="5.10" departSpeed="0.00" departDelay="181.00" arrival="246.00" arrivalLane="E30_0" arrivalPos="52.31" arrivalSpeed="12.71" duration="47.00" routeLength="290.71" waitingTime="15.00" waitingCount="1" stopTime="0.00" timeLoss="25.76" rerouteNo="0" devices="tripinfo_f_8.9 routing_f_8.9" vType="DEFAULT_VEHTYPE" speedFactor="0.99" vaporized=""/>
    <tripinfo id="f_4.4" depart="80.00" departLane="E21_0" departPos="5.10" departSpeed="0.00" departDelay="72.00" arrival="247.00" arrivalLane="E20_0" arrivalPos="44.72" arrivalSpeed="13.26" duration="167.00" routeLength="325.34" waitingTime="116.00" waitingCount="3" stopTime="0.00" timeLoss="141.75" rerouteNo="0" devices="tripinfo_f_4.4 routing_f_4.4" vType="DEFAULT_VEHTYPE" speedFactor="1.00" vaporized=""/>
    <tripinfo id="f_8.10" depart="211.00" departLane="E26_0" departPos="5.10" departSpeed="0.00" departDelay="191.00" arrival="248.00" arrivalLane="E30_0" arrivalPos="52.31" arrivalSpeed="13.41" duration="37.00" routeLength="290.71" waitingTime="5.00" waitingCount="1" stopTime="0.00" timeLoss="16.25" rerouteNo="0" devices="tripinfo_f_8.10 routing_f_8.10" vType="DEFAULT_VEHTYPE" speedFactor="1.03" vaporized=""/>
    <tripinfo id="f_2.2" depart="62.00" departLane="E16_0" departPos="5.10" departSpeed="0.00" departDelay="58.00" arrival="250.00" arrivalLane="E30_0" arrivalPos="52.31" arrivalSpeed="15.69" duration="188.00" routeLength="394.99" waitingTime="124.00" waitingCount="4" stopTime="0.00" timeLoss="160.54" rerouteNo="0" devices="tripinfo_f_2.2 routing_f_2.2" vType="DEFAULT_VEHTYPE" speedFactor="1.13" vaporized=""/>
    <tripinfo id="f_4.5" depart="93.00" departLane="E21_0" departPos="5.10" departSpeed="0.00" departDelay="83.00" arrival="250.00" arrivalLane="E20_0" arrivalPos="44.72" arrivalSpeed="12.39" duration="157.00" routeLength="325.34" waitingTime="99.00" waitingCount="3" stopTime="0.00" timeLoss="128.62" rerouteNo="0" devices="tripinfo_f_4.5 routing_f_4.5" vType="DEFAULT_VEHTYPE" speedFactor="0.91" vaporized=""/>
    <tripinfo id="f_0.4" depart="151.00" departLane="E16_0" departPos="5.10" departSpeed="0.00" departDelay="143.00" arrival="252.00" arrivalLane="E20_0" arrivalPos="44.72" arrivalSpeed="10.94" duration="101.00" routeLength="280.49" waitingTime="66.00" waitingCount="1" stopTime="0.00" timeLoss="77.52" rerouteNo="0" devices="tripinfo_f_0.4 routing_f_0.4" vType="DEFAULT_VEHTYPE" speedFactor="0.88" vaporized=""/>