<?xml version="1.0" encoding="UTF-8"?>

<!-- generated on 2026-04-10T01:57:07.751456+05:30 by Eclipse SUMO sumo 1.26.0
<sumoConfiguration xmlns:xsi="http://www.w3.org/2001/XMLSchema-instance" xsi:noNamespaceSchemaLocation="http://sumo.dlr.de/xsd/sumoConfiguration.xsd">

    <input>
        <net-file value="C:\Users\harsh\Desktop\SAFEGAT\2\network\4x4.net.xml"/>
        <route-files value="C:\Users\harsh\Desktop\SAFEGAT\2\network\4x4.rou.xml"/>
    </input>

    <output>
        <tripinfo-output value="C:\Users\harsh\Desktop\SAFEGAT\2\data\ablation\v3_full_safegat\v3.tripinfo.xml"/>
    </output>

    <processing>
        <time-to-teleport value="-1"/>
    </processing>

    <report>
        <no-warnings value="true"/>
        <no-step-log value="true"/>
    </report>

    <traci_server>
        <remote-port value="49535"/>
    </traci_server>

</sumoConfiguration>
-->

<tripinfos xmlns:xsi="http://www.w3.org/2001/XMLSchema-instance" xsi:noNamespaceSchemaLocation="http://sumo.dlr.de/xsd/tripinfo_file.xsd">
    <tripinfo id="f_9.0" depart="9.00" departLane="E26_0" departPos="5.10" departSpeed="0.00" departDelay="9.00" arrival="22.00" arrivalLane="E3_0" arrivalPos="37.48" arrivalSpeed="13.92" duration="13.00" routeLength="91.76" waitingTime="0.00" waitingCount="0" stopTime="0.00" timeLoss="4.63" rerouteNo="0" devices="tripinfo_f_9.0 routing_f_9.0" vType="DEFAULT_VEHTYPE" speedFactor="1.03" vaporized=""/>
